 Gaussian 16, Revision C.01,
 Gaussian 16:  ES64L-G16RevC.01  3-Jul-2019

 ----------------------------------------------------------------------
 # opt b3lyp/6-31g(d) scrf=(smd,solvent=water) nosymm pop=mk geom=conne
 ctivity iop(6/33=2,6/42=6)
 ----------------------------------------------------------------------

 -------------------
 Title Card Required
 -------------------
 Symbolic Z-matrix:
 Charge =  0 Multiplicity = 1

 SCF Done:  E(RB3LYP) =  -425.389198433     A.U. after   12 cycles
 SCF Done:  E(RB3LYP) =  -425.410617304     A.U. after   11 cycles
 SCF Done:  E(RB3LYP) =  -425.415611651     A.U. after   10 cycles
 SCF Done:  E(RB3LYP) =  -425.416190821     A.U. after    9 cycles
 SCF Done:  E(RB3LYP) =  -425.416409885     A.U. after    9 cycles
 SCF Done:  E(RB3LYP) =  -425.416515930     A.U. after    9 cycles
 SCF Done:  E(RB3LYP) =  -425.416541829     A.U. after    8 cycles
 SCF Done:  E(RB3LYP) =  -425.416551223     A.U. after    8 cycles
 SCF Done:  E(RB3LYP) =  -425.416553229     A.U. after    7 cycles
 SCF Done:  E(RB3LYP) =  -425.416555396     A.U. after    8 cycles
 SCF Done:  E(RB3LYP) =  -425.416556543     A.U. after    7 cycles
 SCF Done:  E(RB3LYP) =  -425.416557085     A.U. after    7 cycles
 SCF Done:  E(RB3LYP) =  -425.416557236     A.U. after    6 cycles
 Optimization completed.
    -- Stationary point found.

                          Input orientation:
 ---------------------------------------------------------------------
 Center     Atomic      Atomic             Coordinates (Angstroms)
 Number     Number       Type             X           Y           Z
 ---------------------------------------------------------------------
      1          6           0       24.266486  -23.965561    0.067421
      2          6           0       21.450803  -27.244074   -4.243363
      3          6           0       21.920874  -26.750409   -5.462728
      4          6           0       22.601038  -25.534344   -5.505710
      5          6           0       22.818255  -24.811005   -4.328518
      6          6           0       21.673645  -26.510499   -3.076654
      7          6           0       22.357263  -25.286411   -3.085325
      8          6           0       22.614466  -24.535346   -1.795605
      9          6           0       24.040046  -24.729320   -1.238490
     10          8           0       23.503551  -23.618409   -4.464140
     11          1           0       25.282280  -24.123193    0.448268
     12          1           0       24.126394  -22.886670   -0.074608
     13          1           0       23.563737  -24.292510    0.844009
     14          1           0       20.914976  -28.187926   -4.200137
     15          1           0       21.756519  -27.305964   -6.382035
     16          1           0       22.970848  -25.129424   -6.443402
     17          1           0       21.307288  -26.888705   -2.124737
     18          1           0       21.890764  -24.872242   -1.043963
     19          1           0       22.426946  -23.459108   -1.928343
     20          1           0       24.214367  -25.801342   -1.079212
     21          1           0       24.771528  -24.403993   -1.990203
     22          1           0       23.545913  -23.163205   -3.607027
 ---------------------------------------------------------------------

 Alpha  occ. eigenvalues --  -19.17262 -10.24417 -10.18979 -10.18484 -10.18353
 Alpha  occ. eigenvalues --  -10.18124 -10.18070 -10.17808 -10.17588 -10.16577
 Alpha  occ. eigenvalues --   -1.04777  -0.84650  -0.78866  -0.74046  -0.73133
 Alpha  occ. eigenvalues --   -0.67174  -0.60411  -0.59633  -0.57743  -0.52775
 Alpha  occ. eigenvalues --   -0.48736  -0.46179  -0.44130  -0.42996  -0.41814
 Alpha  occ. eigenvalues --   -0.41297  -0.38917  -0.38336  -0.37566  -0.36367
 Alpha  occ. eigenvalues --   -0.34080  -0.33811  -0.32707  -0.32077  -0.31891
 Alpha  occ. eigenvalues --   -0.24242  -0.21757
 Alpha virt. eigenvalues --    0.00222   0.01466   0.07847   0.10825   0.12903
 Alpha virt. eigenvalues --    0.14067   0.15361   0.16757   0.16915   0.18076
 Alpha virt. eigenvalues --    0.18270   0.19365   0.19731   0.20510   0.21558

 Mulliken charges:
               1
     1  C   -0.461311
     2  C   -0.165225
     3  C   -0.169385
     4  C   -0.190581
     5  C    0.267497
     6  C   -0.226695
     7  C    0.130477
     8  C   -0.379000
     9  C   -0.249002
    10  O   -0.702143
    11  H    0.151476
    12  H    0.150900
    13  H    0.151255
    14  H    0.151940
    15  H    0.157469
    16  H    0.155826
    17  H    0.153995
    18  H    0.162858
    19  H    0.159424
    20  H    0.143914
    21  H    0.145404
    22  H    0.460907
 Sum of Mulliken charges =  -0.00000

 Dipole moment (field-independent basis, Debye):
    X=             -0.1480    Y=              0.4734    Z=              2.3639  Tot=              2.4154
 Quadrupole moment (field-independent basis, Debye-Ang):
   XX=            -68.6224   YY=            -80.2332   ZZ=            -73.4029
   XY=             17.2645   XZ=             55.1190   YZ=            -57.2349

 ESP charges:
               1
     1  C   -0.307360
     2  C   -0.212878
     3  C   -0.117685
     4  C   -0.306736
     5  C    0.380377
     6  C   -0.131550
     7  C   -0.160052
     8  C   -0.094913
     9  C    0.190420
    10  O   -0.655086
    11  H    0.074478
    12  H    0.072844
    13  H    0.070327
    14  H    0.147416
    15  H    0.144110
    16  H    0.184607
    17  H    0.145135
    18  H    0.073221
    19  H    0.043393
    20  H   -0.011510
    21  H   -0.025003
    22  H    0.496445
 Sum of ESP charges =  -0.00000

 1\1\GINC-CHENG-2060\FOpt\RB3LYP\6-31G(d)\C9H12O1\CHENG\28-Aug-2021\0\\
 # opt b3lyp/6-31g(d) scrf=(smd,solvent=water) nosymm pop=mk geom=conne
 ctivity iop(6/33=2,6/42=6)\\Title Card Required\\0,1\C,24.2664864804,-
 23.9655611503,0.0674211588\C,21.450803133,-27.2440737173,-4.2433633074
 \C,21.9208739978,-26.7504086997,-5.4627283103\C,22.6010380037,-25.5343
 43552,-5.5057096642\C,22.8182550965,-24.8110047658,-4.3285179062\C,21.
 6736451501,-26.5104991549,-3.0766536295\C,22.3572628779,-25.2864114596
 ,-3.0853247542\C,22.6144656511,-24.5353459545,-1.7956048208\C,24.04004

 Normal termination of Gaussian 16 at Sat Aug 28 13:24:20 2021.
